 Gaussian 09, Revision D.01,
 Gaussian 09:  EM64M-G09RevD.01 24-Apr-2013

 -------------------------------------------------
 # opt hf/3-21g geom=connectivity pop=full gfprint
 -------------------------------------------------

 ---------
 butadiene
 ---------
 Symbolic Z-matrix:
 Charge =  0 Multiplicity = 1

 SCF Done:  E(RHF) =  -154.059456401     A.U. after    9 cycles

 The electronic state is 1-A'.
 Alpha  occ. eigenvalues --  -11.17856 -11.17814 -11.16644 -11.16632  -1.09337
 Alpha  occ. eigenvalues --   -1.00729  -0.82190  -0.75579  -0.64966  -0.64024
 Alpha  occ. eigenvalues --   -0.56178  -0.54250  -0.48462  -0.44794  -0.32514
 Alpha virt. eigenvalues --    0.13181   0.27056   0.28639   0.29998   0.30881
 Alpha virt. eigenvalues --    0.35793   0.37568   0.40573   0.55872   0.56143
 Alpha virt. eigenvalues --    0.61074   0.82960   0.90262   0.96962   0.99782

 Mulliken charges:
               1
     1  C   -0.412002
     2  C   -0.246596
     3  C   -0.246913
     4  C   -0.411819
     5  H    0.210989
     6  H    0.217030
     7  H    0.230628
     8  H    0.230694
     9  H    0.217024
    10  H    0.210964
 Sum of Mulliken charges =   0.00000

 Dipole moment (field-independent basis, Debye):
    X=              0.0005    Y=             -0.0008    Z=              0.0000  Tot=              0.0010
 Quadrupole moment (field-independent basis, Debye-Ang):
   XX=            -22.6475   YY=            -22.9937   ZZ=            -29.3144
   XY=             -0.0396   XZ=              0.0000   YZ=              0.0000

 Optimization completed.
    -- Stationary point found.

                         Standard orientation:
 ---------------------------------------------------------------------
 Center     Atomic      Atomic             Coordinates (Angstroms)
 Number     Number       Type             X           Y           Z
 ---------------------------------------------------------------------
      1          6           0       -1.094240    1.472207    0.000000
      2          6           0        0.000000    0.733254    0.000000
      3          6           0       -0.000606   -0.733918    0.000000
      4          6           0        1.094541   -1.471609    0.000000
      5          1           0       -2.074479    1.032360    0.000000
      6          1           0       -1.052019    2.543852    0.000000
      7          1           0        0.966328    1.205814    0.000000
      8          1           0       -0.966194   -1.207746    0.000000
      9          1           0        1.053933   -2.543304    0.000000
     10          1           0        2.074260   -1.030578    0.000000
 ---------------------------------------------------------------------

 Normal termination of Gaussian 09 at Fri Nov 25 19:21:28 2016.
